128
Lattice="13.707271999999996 0.0 0.0 0.0 13.707271999999996 0.0 0.0 0.0 13.707271999999996" Properties=species:S:1:pos:R:3:forces:R:3 energy=-242.79914646757345 pbc="T T T"
Li       0.00000000       0.00000000       0.00000000       0.00000000       0.00000000       0.00000000
Li       1.71340900       1.71340900       1.71340900       0.00000000       0.00000000       0.00000000
Li       0.00000000       0.00000000       3.42681800       0.00000000       0.00000000       0.00000000
Li       1.71340900       1.71340900       5.14022700       0.00000000       0.00000000       0.00000000
Li       0.00000000       0.00000000       6.85363600       0.00000000       0.00000000       0.00000000
Li       1.71340900       1.71340900       8.56704500       0.00000000       0.00000000       0.00000000
Li       0.00000000       0.00000000      10.28045400       0.00000000       0.00000000       0.00000000
Li       1.71340900       1.71340900      11.99386300       0.00000000       0.00000000       0.00000000
Li       0.00000000       3.42681800       0.00000000       0.00000000       0.00000000       0.00000000
Li       1.71340900       5.14022700       1.71340900       0.00000000       0.00000000       0.00000000
Li       0.00000000       3.42681800       3.42681800       0.00000000       0.00000000       0.00000000
Li       1.71340900       5.14022700       5.14022700       0.00000000       0.00000000       0.00000000
Li       0.00000000       3.42681800       6.85363600       0.00000000       0.00000000       0.00000000
Li       1.71340900       5.14022700       8.56704500       0.00000000       0.00000000       0.00000000
Li       0.00000000       3.42681800      10.28045400       0.00000000       0.00000000       0.00000000
Li       1.71340900       5.14022700      11.99386300       0.00000000       0.00000000       0.00000000
Li       0.00000000       6.85363600       0.00000000       0.00000000       0.00000000       0.00000000
Li       1.71340900       8.56704500       1.71340900       0.00000000       0.00000000       0.00000000
Li       0.00000000       6.85363600       3.42681800       0.00000000       0.00000000       0.00000000
Li       1.71340900       8.56704500       5.14022700       0.00000000       0.00000000       0.00000000
Li       0.00000000       6.85363600       6.85363600       0.00000000       0.00000000       0.00000000
Li       1.71340900       8.56704500       8.56704500       0.00000000       0.00000000       0.00000000
Li       0.00000000       6.85363600      10.28045400       0.00000000       0.00000000       0.00000000
Li       1.71340900       8.56704500      11.99386300       0.00000000       0.00000000       0.00000000
Li       0.00000000      10.28045400       0.00000000       0.00000000       0.00000000       0.00000000
Li       1.71340900      11.99386300       1.71340900       0.00000000       0.00000000       0.00000000
Li       0.00000000      10.28045400       3.42681800       0.00000000       0.00000000       0.00000000
Li       1.71340900      11.99386300       5.14022700       0.00000000       0.00000000       0.00000000
Li       0.00000000      10.28045400       6.85363600       0.00000000       0.00000000       0.00000000
Li       1.71340900      11.99386300       8.56704500       0.00000000       0.00000000       0.00000000
Li       0.00000000      10.28045400      10.28045400       0.00000000       0.00000000       0.00000000
Li       1.71340900      11.99386300      11.99386300       0.00000000       0.00000000       0.00000000
Li       3.42681800       0.00000000       0.00000000       0.00000000       0.00000000       0.00000000
Li       5.14022700       1.71340900       1.71340900       0.00000000       0.00000000       0.00000000
Li       3.42681800       0.00000000       3.42681800       0.00000000       0.00000000       0.00000000
Li       5.14022700       1.71340900       5.14022700       0.00000000       0.00000000       0.00000000
Li       3.42681800       0.00000000       6.85363600       0.00000000       0.00000000       0.00000000
Li       5.14022700       1.71340900       8.56704500       0.00000000       0.00000000       0.00000000
Li       3.42681800       0.00000000      10.28045400       0.00000000       0.00000000       0.00000000
Li       5.14022700       1.71340900      11.99386300       0.00000000       0.00000000       0.00000000
Li       3.42681800       3.42681800       0.00000000       0.00000000       0.00000000       0.00000000
Li       5.14022700       5.14022700       1.71340900       0.00000000       0.00000000       0.00000000
Li       3.42681800       3.42681800       3.42681800       0.00000000       0.00000000       0.00000000
Li       5.14022700       5.14022700       5.14022700       0.00000000       0.00000000       0.00000000
Li       3.42681800       3.42681800       6.85363600       0.00000000       0.00000000       0.00000000
Li       5.14022700       5.14022700       8.56704500       0.00000000       0.00000000       0.00000000
Li       3.42681800       3.42681800      10.28045400       0.00000000       0.00000000       0.00000000
Li       5.14022700       5.14022700      11.99386300       0.00000000       0.00000000       0.00000000
Li       3.42681800       6.85363600       0.00000000       0.00000000       0.00000000       0.00000000
Li       5.14022700       8.56704500       1.71340900       0.00000000       0.00000000       0.00000000
Li       3.42681800       6.85363600       3.42681800       0.00000000       0.00000000       0.00000000
Li       5.14022700       8.56704500       5.14022700       0.00000000       0.00000000       0.00000000
Li       3.42681800       6.85363600       6.85363600       0.00000000       0.00000000       0.00000000
Li       5.14022700       8.56704500       8.56704500       0.00000000       0.00000000       0.00000000
Li       3.42681800       6.85363600      10.28045400       0.00000000       0.00000000       0.00000000
Li       5.14022700       8.56704500      11.99386300       0.00000000       0.00000000       0.00000000
Li       3.42681800      10.28045400       0.00000000       0.00000000       0.00000000       0.00000000
Li       5.14022700      11.99386300       1.71340900       0.00000000       0.00000000       0.00000000
Li       3.42681800      10.28045400       3.42681800       0.00000000       0.00000000       0.00000000
Li       5.14022700      11.99386300       5.14022700       0.00000000       0.00000000       0.00000000
Li       3.42681800      10.28045400       6.85363600       0.00000000       0.00000000       0.00000000
Li       5.14022700      11.99386300       8.56704500       0.00000000       0.00000000       0.00000000
Li       3.42681800      10.28045400      10.28045400       0.00000000       0.00000000       0.00000000
Li       5.14022700      11.99386300      11.99386300       0.00000000       0.00000000       0.00000000
Li       6.85363600       0.00000000       0.00000000       0.00000000       0.00000000       0.00000000
Li       8.56704500       1.71340900       1.71340900       0.00000000       0.00000000       0.00000000
Li       6.85363600       0.00000000       3.42681800       0.00000000       0.00000000       0.00000000
Li       8.56704500       1.71340900       5.14022700       0.00000000       0.00000000       0.00000000
Li       6.85363600       0.00000000       6.85363600       0.00000000       0.00000000       0.00000000
Li       8.56704500       1.71340900       8.56704500       0.00000000       0.00000000       0.00000000
Li       6.85363600       0.00000000      10.28045400       0.00000000       0.00000000       0.00000000
Li       8.56704500       1.71340900      11.99386300       0.00000000       0.00000000       0.00000000
Li       6.85363600       3.42681800       0.00000000       0.00000000       0.00000000       0.00000000
Li       8.56704500       5.14022700       1.71340900       0.00000000       0.00000000       0.00000000
Li       6.85363600       3.42681800       3.42681800       0.00000000       0.00000000       0.00000000
Li       8.56704500       5.14022700       5.14022700       0.00000000       0.00000000       0.00000000
Li       6.85363600       3.42681800       6.85363600       0.00000000       0.00000000       0.00000000
Li       8.56704500       5.14022700       8.56704500       0.00000000       0.00000000       0.00000000
Li       6.85363600       3.42681800      10.28045400       0.00000000       0.00000000       0.00000000
Li       8.56704500       5.14022700      11.99386300       0.00000000       0.00000000       0.00000000
Li       6.85363600       6.85363600       0.00000000       0.00000000       0.00000000       0.00000000
Li       8.56704500       8.56704500       1.71340900       0.00000000       0.00000000       0.00000000
Li       6.85363600       6.85363600       3.42681800       0.00000000       0.00000000       0.00000000
Li       8.56704500       8.56704500       5.14022700       0.00000000       0.00000000       0.00000000
Li       6.85363600       6.85363600       6.85363600       0.00000000       0.00000000       0.00000000
Li       8.56704500       8.56704500       8.56704500       0.00000000       0.00000000       0.00000000
Li       6.85363600       6.85363600      10.28045400       0.00000000       0.00000000       0.00000000
Li       8.56704500       8.56704500      11.99386300       0.00000000       0.00000000       0.00000000
Li       6.85363600      10.28045400       0.00000000       0.00000000       0.00000000       0.00000000
Li       8.56704500      11.99386300       1.71340900       0.00000000       0.00000000       0.00000000
Li       6.85363600      10.28045400       3.42681800       0.00000000       0.00000000       0.00000000
Li       8.56704500      11.99386300       5.14022700       0.00000000       0.00000000       0.00000000
Li       6.85363600      10.28045400       6.85363600       0.00000000       0.00000000       0.00000000
Li       8.56704500      11.99386300       8.56704500       0.00000000       0.00000000       0.00000000
Li       6.85363600      10.28045400      10.28045400       0.00000000       0.00000000       0.00000000
Li       8.56704500      11.99386300      11.99386300       0.00000000       0.00000000       0.00000000
Li      10.28045400       0.00000000       0.00000000       0.00000000       0.00000000       0.00000000
Li      11.99386300       1.71340900       1.71340900       0.00000000       0.00000000       0.00000000
Li      10.28045400       0.00000000       3.42681800       0.00000000       0.00000000       0.00000000
Li      11.99386300       1.71340900       5.14022700       0.00000000       0.00000000       0.00000000
Li      10.28045400       0.00000000       6.85363600       0.00000000       0.00000000       0.00000000
Li      11.99386300       1.71340900       8.56704500       0.00000000       0.00000000       0.00000000
Li      10.28045400       0.00000000      10.28045400       0.00000000       0.00000000       0.00000000
Li      11.99386300       1.71340900      11.99386300       0.00000000       0.00000000       0.00000000
Li      10.28045400       3.42681800       0.00000000       0.00000000       0.00000000       0.00000000
Li      11.99386300       5.14022700       1.71340900       0.00000000       0.00000000       0.00000000
Li      10.28045400       3.42681800       3.42681800       0.00000000       0.00000000       0.00000000
Li      11.99386300       5.14022700       5.14022700       0.00000000       0.00000000       0.00000000
Li      10.28045400       3.42681800       6.85363600       0.00000000       0.00000000       0.00000000
Li      11.99386300       5.14022700       8.56704500       0.00000000       0.00000000       0.00000000
Li      10.28045400       3.42681800      10.28045400       0.00000000       0.00000000       0.00000000
Li      11.99386300       5.14022700      11.99386300       0.00000000       0.00000000       0.00000000
Li      10.28045400       6.85363600       0.00000000       0.00000000       0.00000000       0.00000000
Li      11.99386300       8.56704500       1.71340900       0.00000000       0.00000000       0.00000000
Li      10.28045400       6.85363600       3.42681800       0.00000000       0.00000000       0.00000000
Li      11.99386300       8.56704500       5.14022700       0.00000000       0.00000000       0.00000000
Li      10.28045400       6.85363600       6.85363600       0.00000000       0.00000000       0.00000000
Li      11.99386300       8.56704500       8.56704500       0.00000000       0.00000000       0.00000000
Li      10.28045400       6.85363600      10.28045400       0.00000000       0.00000000       0.00000000
Li      11.99386300       8.56704500      11.99386300       0.00000000       0.00000000       0.00000000
Li      10.28045400      10.28045400       0.00000000       0.00000000       0.00000000       0.00000000
Li      11.99386300      11.99386300       1.71340900       0.00000000       0.00000000       0.00000000
Li      10.28045400      10.28045400       3.42681800       0.00000000       0.00000000       0.00000000
Li      11.99386300      11.99386300       5.14022700       0.00000000       0.00000000       0.00000000
Li      10.28045400      10.28045400       6.85363600       0.00000000       0.00000000       0.00000000
Li      11.99386300      11.99386300       8.56704500       0.00000000       0.00000000       0.00000000
Li      10.28045400      10.28045400      10.28045400       0.00000000       0.00000000       0.00000000
Li      11.99386300      11.99386300      11.99386300       0.00000000       0.00000000       0.00000000
