152
Lattice="8.531238000000002 0.0 0.0 0.0 14.312682000000004 0.0 0.0 0.0 19.622662000000002" Properties=species:S:1:pos:R:3:forces:R:3 energy=-523.6679059894539 pbc="T T T"
Li       5.64555528      11.93889506      14.71699650       0.00000000       0.00000000       0.00000000
Li       1.37993628       9.53012794      14.71699650       0.00000000       0.00000000       0.00000000
Li       7.15130172       4.78255406       4.90566550       0.00000000       0.00000000       0.00000000
Li       2.88568272       2.37378694       4.90566550       0.00000000       0.00000000       0.00000000
Li       5.23033139       9.03402175      14.71699650       0.00000000       0.00000000       0.00000000
Li       0.96471239      12.43500125      14.71699650       0.00000000       0.00000000       0.00000000
Li       7.56652561       1.87768075       4.90566550       0.00000000       0.00000000       0.00000000
Li       3.30090661       5.27866025       4.90566550       0.00000000       0.00000000       0.00000000
Li       4.23387426       6.76179761      12.26416375       0.00000000       0.00000000       0.00000000
Li       8.49949326       0.39454339      17.16982925       0.00000000       0.00000000       0.00000000
Li       0.03174474      13.91813861       7.35849825       0.00000000       0.00000000       0.00000000
Li       4.29736374       7.55088439       2.45283275       0.00000000       0.00000000       0.00000000
Li       4.29736374       7.55088439       7.35849825       0.00000000       0.00000000       0.00000000
Li       0.03174474      13.91813861       2.45283275       0.00000000       0.00000000       0.00000000
Li       8.49949326       0.39454339      12.26416375       0.00000000       0.00000000       0.00000000
Li       4.23387426       6.76179761      17.16982925       0.00000000       0.00000000       0.00000000
Li       7.18706467       7.08350376      12.00229933       0.00000000       0.00000000       0.00000000
Li       2.92144567       0.07283724      17.43169367       0.00000000       0.00000000       0.00000000
Li       5.60979233      14.23984476       7.62036267       0.00000000       0.00000000       0.00000000
Li       1.34417333       7.22917824       2.19096833       0.00000000       0.00000000       0.00000000
Li       1.34417333       7.22917824       7.62036267       0.00000000       0.00000000       0.00000000
Li       5.60979233      14.23984476       2.19096833       0.00000000       0.00000000       0.00000000
Li       2.92144567       0.07283724      12.00229933       0.00000000       0.00000000       0.00000000
Li       7.18706467       7.08350376      17.43169367       0.00000000       0.00000000       0.00000000
Li       7.48279151       9.44048761      16.37222691       0.00000000       0.00000000       0.00000000
Li       3.21717251      12.02853539      13.06176609       0.00000000       0.00000000       0.00000000
Li       5.31406549       2.28414661       3.25043509       0.00000000       0.00000000       0.00000000
Li       1.04844649       4.87219439       6.56089591       0.00000000       0.00000000       0.00000000
Li       1.04844649       4.87219439       3.25043509       0.00000000       0.00000000       0.00000000
Li       5.31406549       2.28414661       6.56089591       0.00000000       0.00000000       0.00000000
Li       3.21717251      12.02853539      16.37222691       0.00000000       0.00000000       0.00000000
Li       7.48279151       9.44048761      13.06176609       0.00000000       0.00000000       0.00000000
Li       3.16030327      13.37261073       0.54556887       0.00000000       0.00000000       0.00000000
Li       7.42592227       8.09641227       9.26576213       0.00000000       0.00000000       0.00000000
Li       1.10531573       6.21626973      19.07709313       0.00000000       0.00000000       0.00000000
Li       5.37093473       0.94007127      10.35689987       0.00000000       0.00000000       0.00000000
Li       5.37093473       0.94007127      19.07709313       0.00000000       0.00000000       0.00000000
Li       1.10531573       6.21626973      10.35689987       0.00000000       0.00000000       0.00000000
Li       7.42592227       8.09641227       0.54556887       0.00000000       0.00000000       0.00000000
Li       3.16030327      13.37261073       9.26576213       0.00000000       0.00000000       0.00000000
Li       5.37836543       3.77116270      17.41120762       0.00000000       0.00000000       0.00000000
Li       1.11274643       3.38517830      12.02278538       0.00000000       0.00000000       0.00000000
Li       7.41849157      10.92750370       2.21145438       0.00000000       0.00000000       0.00000000
Li       3.15287257      10.54151930       7.59987662       0.00000000       0.00000000       0.00000000
Li       3.15287257      10.54151930       2.21145438       0.00000000       0.00000000       0.00000000
Li       7.41849157      10.92750370       7.59987662       0.00000000       0.00000000       0.00000000
Li       1.11274643       3.38517830      17.41120762       0.00000000       0.00000000       0.00000000
Li       5.37836543       3.77116270      12.02278538       0.00000000       0.00000000       0.00000000
Li       3.12976997       8.12041463       0.09524840       0.00000000       0.00000000       0.00000000
Li       7.39538897      13.34860837       9.71608260       0.00000000       0.00000000       0.00000000
Li       1.13584903       0.96407363      19.52741360       0.00000000       0.00000000       0.00000000
Li       5.40146803       6.19226737       9.90657940       0.00000000       0.00000000       0.00000000
Li       5.40146803       6.19226737      19.52741360       0.00000000       0.00000000       0.00000000
Li       1.13584903       0.96407363       9.90657940       0.00000000       0.00000000       0.00000000
Li       7.39538897      13.34860837       0.09524840       0.00000000       0.00000000       0.00000000
Li       3.12976997       8.12041463       9.71608260       0.00000000       0.00000000       0.00000000
Li       3.17210198       9.14349946      16.77613978       0.00000000       0.00000000       0.00000000
Li       7.43772098      12.32552354      12.65785322       0.00000000       0.00000000       0.00000000
Li       1.09351702       1.98715846       2.84652222       0.00000000       0.00000000       0.00000000
Li       5.35913602       5.16918254       6.96480878       0.00000000       0.00000000       0.00000000
Li       5.35913602       5.16918254       2.84652222       0.00000000       0.00000000       0.00000000
Li       1.09351702       1.98715846       6.96480878       0.00000000       0.00000000       0.00000000
Li       7.43772098      12.32552354      16.77613978       0.00000000       0.00000000       0.00000000
Li       3.17210198       9.14349946      12.65785322       0.00000000       0.00000000       0.00000000
Li       7.42636590      10.64388360      19.00317456       0.00000000       0.00000000       0.00000000
Li       3.16074690      10.82513940      10.43081844       0.00000000       0.00000000       0.00000000
Li       5.37049110       3.48754260       0.61948744       0.00000000       0.00000000       0.00000000
Li       1.10487210       3.66879840       9.19184356       0.00000000       0.00000000       0.00000000
Li       1.10487210       3.66879840       0.61948744       0.00000000       0.00000000       0.00000000
Li       5.37049110       3.48754260       9.19184356       0.00000000       0.00000000       0.00000000
Li       3.16074690      10.82513940      19.00317456       0.00000000       0.00000000       0.00000000
Li       7.42636590      10.64388360      10.43081844       0.00000000       0.00000000       0.00000000
Li       1.17658569       6.83930078      13.17394885       0.00000000       0.00000000       0.00000000
Li       5.44220469       0.31704022      16.26004415       0.00000000       0.00000000       0.00000000
Li       3.08903331      13.99564178       6.44871315       0.00000000       0.00000000       0.00000000
Li       7.35465231       7.47338122       3.36261785       0.00000000       0.00000000       0.00000000
Li       7.35465231       7.47338122       6.44871315       0.00000000       0.00000000       0.00000000
Li       3.08903331      13.99564178       3.36261785       0.00000000       0.00000000       0.00000000
Li       5.44220469       0.31704022      13.17394885       0.00000000       0.00000000       0.00000000
Li       1.17658569       6.83930078      16.26004415       0.00000000       0.00000000       0.00000000
Li       7.35946393       2.32678409      13.51818921       0.00000000       0.00000000       0.00000000
Li       3.09384493       4.82955691      15.91580379       0.00000000       0.00000000       0.00000000
Li       5.43739307       9.48312509       6.10447279       0.00000000       0.00000000       0.00000000
Li       1.17177407      11.98589791       3.70685821       0.00000000       0.00000000       0.00000000
Li       1.17177407      11.98589791       6.10447279       0.00000000       0.00000000       0.00000000
Li       5.43739307       9.48312509       3.70685821       0.00000000       0.00000000       0.00000000
Li       3.09384493       4.82955691      13.51818921       0.00000000       0.00000000       0.00000000
Li       7.35946393       2.32678409      15.91580379       0.00000000       0.00000000       0.00000000
Li       5.19397979      12.07091524       3.67324459       0.00000000       0.00000000       0.00000000
Li       0.92836079       9.39810776       6.13808641       0.00000000       0.00000000       0.00000000
Li       7.60287721       4.91457424      15.94941741       0.00000000       0.00000000       0.00000000
Li       3.33725821       2.24176676      13.48457559       0.00000000       0.00000000       0.00000000
Li       3.33725821       2.24176676      15.94941741       0.00000000       0.00000000       0.00000000
Li       7.60287721       4.91457424      13.48457559       0.00000000       0.00000000       0.00000000
Li       0.92836079       9.39810776       3.67324459       0.00000000       0.00000000       0.00000000
Li       5.19397979      12.07091524       6.13808641       0.00000000       0.00000000       0.00000000
Si       5.25231639       7.04458758       4.90566550       0.00000000       0.00000000       0.00000000
Si       0.98669739       0.11175342       4.90566550       0.00000000       0.00000000       0.00000000
Si       7.54454061      14.20092858      14.71699650       0.00000000       0.00000000       0.00000000
Si       3.27892161       7.26809442      14.71699650       0.00000000       0.00000000       0.00000000
Si       1.04316566       6.98514701       4.90566550       0.00000000       0.00000000       0.00000000
Si       5.30878466       0.17119399       4.90566550       0.00000000       0.00000000       0.00000000
Si       3.22245334      14.14148801      14.71699650       0.00000000       0.00000000       0.00000000
Si       7.48807234       7.32753499      14.71699650       0.00000000       0.00000000       0.00000000
Si       3.17182044      10.52641942       4.90566550       0.00000000       0.00000000       0.00000000
Si       7.43743944      10.94260358       4.90566550       0.00000000       0.00000000       0.00000000
Si       1.09379856       3.37007842      14.71699650       0.00000000       0.00000000       0.00000000
Si       5.35941756       3.78626258      14.71699650       0.00000000       0.00000000       0.00000000
Si       3.13116910       8.15190253       4.90566550       0.00000000       0.00000000       0.00000000
Si       7.39678810      13.31712047       4.90566550       0.00000000       0.00000000       0.00000000
Si       1.13444990       0.99556153      14.71699650       0.00000000       0.00000000       0.00000000
Si       5.40006890       6.16077947      14.71699650       0.00000000       0.00000000       0.00000000
Si       1.05681564      10.76242123      12.40460314       0.00000000       0.00000000       0.00000000
Si       5.32243464      10.70660177      17.02938986       0.00000000       0.00000000       0.00000000
Si       3.20880336       3.60608023       7.21805886       0.00000000       0.00000000       0.00000000
Si       7.47442236       3.55026077       2.59327214       0.00000000       0.00000000       0.00000000
Si       7.47442236       3.55026077       7.21805886       0.00000000       0.00000000       0.00000000
Si       3.20880336       3.60608023       2.59327214       0.00000000       0.00000000       0.00000000
Si       5.32243464      10.70660177      12.40460314       0.00000000       0.00000000       0.00000000
Si       1.05681564      10.76242123      17.02938986       0.00000000       0.00000000       0.00000000
Si       0.90884132       8.78820144      11.08713762       0.00000000       0.00000000       0.00000000
Si       5.17446032      12.68082156      18.34685538       0.00000000       0.00000000       0.00000000
Si       3.35677768       1.63186044       8.53552438       0.00000000       0.00000000       0.00000000
Si       7.62239668       5.52448056       1.27580662       0.00000000       0.00000000       0.00000000
Si       7.62239668       5.52448056       8.53552438       0.00000000       0.00000000       0.00000000
Si       3.35677768       1.63186044       1.27580662       0.00000000       0.00000000       0.00000000
Si       5.17446032      12.68082156      11.08713762       0.00000000       0.00000000       0.00000000
Si       0.90884132       8.78820144      18.34685538       0.00000000       0.00000000       0.00000000
Si       1.00469831       9.53861536       8.81824770       0.00000000       0.00000000       0.00000000
Si       5.27031731      11.93040764       0.99308330       0.00000000       0.00000000       0.00000000
Si       3.26092069       2.38227436      10.80441430       0.00000000       0.00000000       0.00000000
Si       7.52653969       4.77406664      18.62957870       0.00000000       0.00000000       0.00000000
Si       7.52653969       4.77406664      10.80441430       0.00000000       0.00000000       0.00000000
Si       3.26092069       2.38227436      18.62957870       0.00000000       0.00000000       0.00000000
Si       5.27031731      11.93040764       8.81824770       0.00000000       0.00000000       0.00000000
Si       1.00469831       9.53861536       0.99308330       0.00000000       0.00000000       0.00000000
Si       1.02308312      11.89979282       8.76854350       0.00000000       0.00000000       0.00000000
Si       5.28870212       9.56923018       1.04278750       0.00000000       0.00000000       0.00000000
Si       3.24253588       4.74345182      10.85411850       0.00000000       0.00000000       0.00000000
Si       7.50815488       2.41288918      18.57987450       0.00000000       0.00000000       0.00000000
Si       7.50815488       2.41288918      10.85411850       0.00000000       0.00000000       0.00000000
Si       3.24253588       4.74345182      18.57987450       0.00000000       0.00000000       0.00000000
Si       5.28870212       9.56923018       8.76854350       0.00000000       0.00000000       0.00000000
Si       1.02308312      11.89979282       1.04278750       0.00000000       0.00000000       0.00000000
Si       1.11883774      12.67866035      11.00489904       0.00000000       0.00000000       0.00000000
Si       5.38445674       8.79036265      18.42909396       0.00000000       0.00000000       0.00000000
Si       3.14678126       5.52231935       8.61776296       0.00000000       0.00000000       0.00000000
Si       7.41240026       1.63402165       1.19356804       0.00000000       0.00000000       0.00000000
Si       7.41240026       1.63402165       8.61776296       0.00000000       0.00000000       0.00000000
Si       3.14678126       5.52231935       1.19356804       0.00000000       0.00000000       0.00000000
Si       5.38445674       8.79036265      11.00489904       0.00000000       0.00000000       0.00000000
Si       1.11883774      12.67866035      18.42909396       0.00000000       0.00000000       0.00000000
