34
Lattice="4.4207350000000005 0.0 0.0 0.0 7.897987000000001 0.0 0.0 0.0 15.011548000000003" Properties=species:S:1:pos:R:3:forces:R:3 energy=-101.22437002902335 pbc="T T T"
Li       0.00000000       6.08082605       2.30520333       0.00000000       0.00000000       0.00000000
Li       0.00000000       2.74504016       7.88748764       0.00000000       0.00000000       0.00000000
Li       0.00000000       1.20395334       0.38171364       0.00000000       0.00000000       0.00000000
Li       2.21036750       5.98687160       6.07409264       0.00000000       0.00000000       0.00000000
Li       0.00000000       1.81716095      12.70634467       0.00000000       0.00000000       0.00000000
Li       0.00000000       3.19653648      10.42119676       0.00000000       0.00000000       0.00000000
Li       0.00000000       7.14552998      12.09612524       0.00000000       0.00000000       0.00000000
Li       2.21036750       4.66079958      11.18015060       0.00000000       0.00000000       0.00000000
Li       2.21036750       7.13911682       9.08986760       0.00000000       0.00000000       0.00000000
Li       0.00000000       5.76615445       9.81097733       0.00000000       0.00000000       0.00000000
Li       2.21036750       1.91111540       8.93745536       0.00000000       0.00000000       0.00000000
Li       2.21036750       2.03787810       1.43168136       0.00000000       0.00000000       0.00000000
Li       2.21036750       0.75887018       5.92168040       0.00000000       0.00000000       0.00000000
Li       2.21036750       5.86010890      13.57986664       0.00000000       0.00000000       0.00000000
Li       2.21036750       0.71180608      11.33717140       0.00000000       0.00000000       0.00000000
Li       0.00000000       2.13183255       5.20057067       0.00000000       0.00000000       0.00000000
Li       2.21036750       3.23718742       3.83139740       0.00000000       0.00000000       0.00000000
Li       0.00000000       0.00000000       7.50577400       0.00000000       0.00000000       0.00000000
Li       0.00000000       0.75245702       2.91542276       0.00000000       0.00000000       0.00000000
Li       2.21036750       3.19012332      13.42745440       0.00000000       0.00000000       0.00000000
Li       0.00000000       5.15294684       7.12406036       0.00000000       0.00000000       0.00000000
Li       0.00000000       6.69403366      14.62983436       0.00000000       0.00000000       0.00000000
Li       2.21036750       7.18618092       3.67437660       0.00000000       0.00000000       0.00000000
Li       0.00000000       3.94899350       0.00000000       0.00000000       0.00000000       0.00000000
Li       2.21036750       4.70786368       1.58409360       0.00000000       0.00000000       0.00000000
Li       0.00000000       4.70145052       4.59035124       0.00000000       0.00000000       0.00000000
Si       2.21036750       7.31111918       1.03390536       0.00000000       0.00000000       0.00000000
Si       0.00000000       4.60733810      12.60587238       0.00000000       0.00000000       0.00000000
Si       0.00000000       3.29064890       2.40567562       0.00000000       0.00000000       0.00000000
Si       2.21036750       4.53586132       8.53967936       0.00000000       0.00000000       0.00000000
Si       0.00000000       0.65834460       9.91144962       0.00000000       0.00000000       0.00000000
Si       2.21036750       3.36212568       6.47186864       0.00000000       0.00000000       0.00000000
Si       2.21036750       0.58686782      13.97764264       0.00000000       0.00000000       0.00000000
Si       0.00000000       7.23964240       5.10009838       0.00000000       0.00000000       0.00000000
