76
Lattice="10.566048000000002 0.0 0.0 0.0 10.566048000000002 0.0 0.0 0.0 10.566048000000002" Properties=species:S:1:pos:R:3:forces:R:3 energy=-218.63607601686786 pbc="T T T"
Li       6.29828914       1.34113262       2.25523313       0.00000000       0.00000000       0.00000000
Li       7.92453600       1.32075600       0.00000000       0.00000000       0.00000000       0.00000000
Li       2.25523313       6.29828914       1.34113262       0.00000000       0.00000000       0.00000000
Li       3.94189138       2.25523313       4.26775886       0.00000000       0.00000000       0.00000000
Li       8.31081487       9.55078286       1.34113262       0.00000000       0.00000000       0.00000000
Li       1.62624686      10.17976913       1.30037938       0.00000000       0.00000000       0.00000000
Li       9.55078286       1.34113262       8.31081487       0.00000000       0.00000000       0.00000000
Li      10.17976913       1.30037938       1.62624686       0.00000000       0.00000000       0.00000000
Li       3.98264462       1.62624686       0.38627887       0.00000000       0.00000000       0.00000000
Li       2.25523313       4.26775886       3.94189138       0.00000000       0.00000000       0.00000000
Li       1.34113262       8.31081487       9.55078286       0.00000000       0.00000000       0.00000000
Li       0.38627887       3.98264462       1.62624686       0.00000000       0.00000000       0.00000000
Li       0.00000000       2.64151200       3.96226800       0.00000000       0.00000000       0.00000000
Li       3.02779087       6.29828914       9.22491538       0.00000000       0.00000000       0.00000000
Li       0.00000000       7.92453600       1.32075600       0.00000000       0.00000000       0.00000000
Li       0.38627887       6.58340338       3.65677714       0.00000000       0.00000000       0.00000000
Li       1.62624686       0.38627887       3.98264462       0.00000000       0.00000000       0.00000000
Li       1.30037938       1.62624686      10.17976913       0.00000000       0.00000000       0.00000000
Li       3.98264462       8.93980114       4.89674513       0.00000000       0.00000000       0.00000000
Li       1.32075600       0.00000000       7.92453600       0.00000000       0.00000000       0.00000000
Li       9.22491538       3.02779087       6.29828914       0.00000000       0.00000000       0.00000000
Li       4.26775886       3.94189138       2.25523313       0.00000000       0.00000000       0.00000000
Li       6.58340338       3.65677714       0.38627887       0.00000000       0.00000000       0.00000000
Li       1.34113262       2.25523313       6.29828914       0.00000000       0.00000000       0.00000000
Li       3.65677714       0.38627887       6.58340338       0.00000000       0.00000000       0.00000000
Li       6.29828914       9.22491538       3.02779087       0.00000000       0.00000000       0.00000000
Li       4.89674513       3.98264462       8.93980114       0.00000000       0.00000000       0.00000000
Li       2.64151200       3.96226800       0.00000000       0.00000000       0.00000000       0.00000000
Li       8.93980114       4.89674513       3.98264462       0.00000000       0.00000000       0.00000000
Li       3.96226800       0.00000000       2.64151200       0.00000000       0.00000000       0.00000000
Li       1.01526514       6.62415662       7.53825713       0.00000000       0.00000000       0.00000000
Li       2.64151200       6.60378000       5.28302400       0.00000000       0.00000000       0.00000000
Li       7.53825713       1.01526514       6.62415662       0.00000000       0.00000000       0.00000000
Li       9.22491538       7.53825713       9.55078286       0.00000000       0.00000000       0.00000000
Li       3.02779087       4.26775886       6.62415662       0.00000000       0.00000000       0.00000000
Li       6.90927086       4.89674513       6.58340338       0.00000000       0.00000000       0.00000000
Li       4.26775886       6.62415662       3.02779087       0.00000000       0.00000000       0.00000000
Li       4.89674513       6.58340338       6.90927086       0.00000000       0.00000000       0.00000000
Li       9.26566862       6.90927086       5.66930287       0.00000000       0.00000000       0.00000000
Li       7.53825713       9.55078286       9.22491538       0.00000000       0.00000000       0.00000000
Li       6.62415662       3.02779087       4.26775886       0.00000000       0.00000000       0.00000000
Li       5.66930287       9.26566862       6.90927086       0.00000000       0.00000000       0.00000000
Li       5.28302400       7.92453600       9.24529200       0.00000000       0.00000000       0.00000000
Li       8.31081487       1.01526514       3.94189138       0.00000000       0.00000000       0.00000000
Li       5.28302400       2.64151200       6.60378000       0.00000000       0.00000000       0.00000000
Li       5.66930287       1.30037938       8.93980114       0.00000000       0.00000000       0.00000000
Li       6.90927086       5.66930287       9.26566862       0.00000000       0.00000000       0.00000000
Li       6.58340338       6.90927086       4.89674513       0.00000000       0.00000000       0.00000000
Li       9.26566862       3.65677714      10.17976913       0.00000000       0.00000000       0.00000000
Li       6.60378000       5.28302400       2.64151200       0.00000000       0.00000000       0.00000000
Li       3.94189138       8.31081487       1.01526514       0.00000000       0.00000000       0.00000000
Li       9.55078286       9.22491538       7.53825713       0.00000000       0.00000000       0.00000000
Li       1.30037938       8.93980114       5.66930287       0.00000000       0.00000000       0.00000000
Li       6.62415662       7.53825713       1.01526514       0.00000000       0.00000000       0.00000000
Li       8.93980114       5.66930287       1.30037938       0.00000000       0.00000000       0.00000000
Li       1.01526514       3.94189138       8.31081487       0.00000000       0.00000000       0.00000000
Li      10.17976913       9.26566862       3.65677714       0.00000000       0.00000000       0.00000000
Li       7.92453600       9.24529200       5.28302400       0.00000000       0.00000000       0.00000000
Li       3.65677714      10.17976913       9.26566862       0.00000000       0.00000000       0.00000000
Li       9.24529200       5.28302400       7.92453600       0.00000000       0.00000000       0.00000000
Si       0.44829628       5.73132028      10.11775172       0.00000000       0.00000000       0.00000000
Si      10.11775172       0.44829628       5.73132028       0.00000000       0.00000000       0.00000000
Si       8.37283228       3.08980828       2.19321572       0.00000000       0.00000000       0.00000000
Si       3.08980828       2.19321572       8.37283228       0.00000000       0.00000000       0.00000000
Si       5.73132028      10.11775172       0.44829628       0.00000000       0.00000000       0.00000000
Si       2.19321572       8.37283228       3.08980828       0.00000000       0.00000000       0.00000000
Si       2.19321572       2.19321572       2.19321572       0.00000000       0.00000000       0.00000000
Si       4.83472772       4.83472772       4.83472772       0.00000000       0.00000000       0.00000000
Si       5.73132028       0.44829628       4.83472772       0.00000000       0.00000000       0.00000000
Si       4.83472772       5.73132028       0.44829628       0.00000000       0.00000000       0.00000000
Si       3.08980828       8.37283228       7.47623972       0.00000000       0.00000000       0.00000000
Si       8.37283228       7.47623972       3.08980828       0.00000000       0.00000000       0.00000000
Si       0.44829628       4.83472772       5.73132028       0.00000000       0.00000000       0.00000000
Si       7.47623972       3.08980828       8.37283228       0.00000000       0.00000000       0.00000000
Si       7.47623972       7.47623972       7.47623972       0.00000000       0.00000000       0.00000000
Si      10.11775172      10.11775172      10.11775172       0.00000000       0.00000000       0.00000000
