60
Lattice="7.579872250000002 0.0 0.0 -3.789936124999999 6.564361925940714 0.0 0.0 0.0 18.002744000000003" Properties=species:S:1:pos:R:3:forces:R:3 energy=-192.69740394091778 pbc="T T T"
Li       6.31557230       0.72994392      12.00182939       0.00000000       0.00000000       0.00000000
Li       3.78993613       5.10447409       6.00091461       0.00000000       0.00000000       0.00000000
Li       1.26429995       0.72994392       0.00000000       0.00000000       0.00000000       0.00000000
Li       2.53980674       2.90988318      12.00182939       0.00000000       0.00000000       0.00000000
Li       3.78993613       0.74459557       6.00091461       0.00000000       0.00000000       0.00000000
Li       5.04006551       2.90988318       0.00000000       0.00000000       0.00000000       0.00000000
Li       0.00909206       2.93373807       3.57336466       0.00000000       0.00000000       0.00000000
Li       1.24469840       5.10536684      15.57519405       0.00000000       0.00000000       0.00000000
Li      -1.25379046       5.08961894       9.57427926       0.00000000       0.00000000       0.00000000
Li      -1.24469840       5.10536684      14.42937934       0.00000000       0.00000000       0.00000000
Li       1.25379046       5.08961894       2.42754995       0.00000000       0.00000000       0.00000000
Li      -0.00909206       2.93373807       8.42846474       0.00000000       0.00000000       0.00000000
Li       0.07656050       3.06405378       0.80267034       0.00000000       0.00000000       0.00000000
Li       1.09810746       5.09863837      12.80449974       0.00000000       0.00000000       0.00000000
Li      -1.17466796       4.96603170       6.80358495       0.00000000       0.00000000       0.00000000
Li      -1.09810746       5.09863837      17.20007366       0.00000000       0.00000000       0.00000000
Li       1.17466796       4.96603170       5.19824426       0.00000000       0.00000000       0.00000000
Li      -0.07656050       3.06405378      11.19915905       0.00000000       0.00000000       0.00000000
Li       6.32779484       0.74777929       9.29753514       0.00000000       0.00000000       0.00000000
Li       3.76837897       5.10614144       3.29662053       0.00000000       0.00000000       0.00000000
Li       1.27363456       0.71044120      15.29844975       0.00000000       0.00000000       0.00000000
Li       3.81149328       5.10614144       8.70520886       0.00000000       0.00000000       0.00000000
Li       6.30623769       0.71044120      14.70612347       0.00000000       0.00000000       0.00000000
Li       1.25207741       0.74777929       2.70429425       0.00000000       0.00000000       0.00000000
Li       6.40838783       0.88410139       6.72463698       0.00000000       0.00000000       0.00000000
Li       3.61002407       5.10777597       0.72372237       0.00000000       0.00000000       0.00000000
Li       1.35139647       0.57248457      12.72555158       0.00000000       0.00000000       0.00000000
Li       3.96984818       5.10777597      11.27810702       0.00000000       0.00000000       0.00000000
Li       6.22847578       0.57248457      17.27902163       0.00000000       0.00000000       0.00000000
Li       1.17148442       0.88410139       5.27719242       0.00000000       0.00000000       0.00000000
Li       5.06839528       2.93463739      15.29385311       0.00000000       0.00000000       0.00000000
Li       2.50420408       2.92204037       9.29293850       0.00000000       0.00000000       0.00000000
Li       3.79720901       0.70768417       3.29202371       0.00000000       0.00000000       0.00000000
Li       5.07566817       2.92204037       2.70889089       0.00000000       0.00000000       0.00000000
Li       3.78266324       0.70768417       8.70980550       0.00000000       0.00000000       0.00000000
Li       2.51147697       2.93463739      14.71072029       0.00000000       0.00000000       0.00000000
Li       5.15290327       3.07787176      12.71901065       0.00000000       0.00000000       0.00000000
Li       2.33790548       2.92360926       6.71809604       0.00000000       0.00000000       0.00000000
Li       3.87899962       0.56288091       0.71718125       0.00000000       0.00000000       0.00000000
Li       5.24196677       2.92360926       5.28373335       0.00000000       0.00000000       0.00000000
Li       3.70087263       0.56288091      11.28464796       0.00000000       0.00000000       0.00000000
Li       2.42696898       3.07787176      17.28556275       0.00000000       0.00000000       0.00000000
Si      -0.03058478       2.79662824      16.18693323       0.00000000       0.00000000       0.00000000
Si       1.38327742       5.13956061      10.18601863       0.00000000       0.00000000       0.00000000
Si      -1.35269263       5.19253501       4.18510384       0.00000000       0.00000000       0.00000000
Si      -1.38327742       5.13956061       1.81581077       0.00000000       0.00000000       0.00000000
Si       1.35269263       5.19253501       7.81672537       0.00000000       0.00000000       0.00000000
Si       0.03058478       2.79662824      13.81764016       0.00000000       0.00000000       0.00000000
Si       6.27820732       0.67119944       4.17480033       0.00000000       0.00000000       0.00000000
Si       3.85949282       5.10148731      16.17662972       0.00000000       0.00000000       0.00000000
Si       1.23210823       0.79167518      10.17571493       0.00000000       0.00000000       0.00000000
Si       3.72037943       5.10148731      13.82794367       0.00000000       0.00000000       0.00000000
Si       6.34776402       0.79167518       1.82611428       0.00000000       0.00000000       0.00000000
Si       1.30166493       0.67119944       7.82702907       0.00000000       0.00000000       0.00000000
Si       4.96848498       2.83189199      10.17765329       0.00000000       0.00000000       0.00000000
Si       2.64313935       2.88688822       4.17673868       0.00000000       0.00000000       0.00000000
Si       3.75818404       0.84558172      16.17856790       0.00000000       0.00000000       0.00000000
Si       4.93673290       2.88688822       7.82509071       0.00000000       0.00000000       0.00000000
Si       3.82168821       0.84558172      13.82600532       0.00000000       0.00000000       0.00000000
Si       2.61138727       2.83189199       1.82417610       0.00000000       0.00000000       0.00000000
