32
Lattice="9.327158000000003 0.0 0.0 0.0 9.327158000000003 0.0 0.0 0.0 5.740710000000001" Properties=species:S:1:pos:R:3:forces:R:3 energy=-123.30939950678582 pbc="T T T"
Li       5.41878499       1.26403044       5.33500541       0.00000000       0.00000000       0.00000000
Li       8.06312756       0.75520599       3.89982791       0.00000000       0.00000000       0.00000000
Li       1.26403044       8.57195201       3.89982791       0.00000000       0.00000000       0.00000000
Li       3.90837301       8.06312756       5.33500541       0.00000000       0.00000000       0.00000000
Li       3.90837301       3.39954856       4.71123709       0.00000000       0.00000000       0.00000000
Li       5.92760944       8.57195201       3.27605959       0.00000000       0.00000000       0.00000000
Li       3.39954856       0.75520599       3.27605959       0.00000000       0.00000000       0.00000000
Li       5.41878499       5.92760944       4.71123709       0.00000000       0.00000000       0.00000000
Li       0.75520599       5.92760944       2.46465041       0.00000000       0.00000000       0.00000000
Li       3.39954856       5.41878499       1.02947291       0.00000000       0.00000000       0.00000000
Li       5.92760944       3.90837301       1.02947291       0.00000000       0.00000000       0.00000000
Li       8.57195201       3.39954856       2.46465041       0.00000000       0.00000000       0.00000000
Li       8.57195201       8.06312756       1.84088209       0.00000000       0.00000000       0.00000000
Li       1.26403044       3.90837301       0.40570459       0.00000000       0.00000000       0.00000000
Li       8.06312756       5.41878499       0.40570459       0.00000000       0.00000000       0.00000000
Li       0.75520599       1.26403044       1.84088209       0.00000000       0.00000000       0.00000000
Si       5.69590418       1.89022785       2.69596658       0.00000000       0.00000000       0.00000000
Si       7.43693015       1.03232518       1.26078908       0.00000000       0.00000000       0.00000000
Si       1.89022785       8.29483282       1.26078908       0.00000000       0.00000000       0.00000000
Si       3.63125382       7.43693015       2.69596658       0.00000000       0.00000000       0.00000000
Si       3.63125382       2.77335115       1.60956592       0.00000000       0.00000000       0.00000000
Si       6.55380685       8.29483282       0.17438842       0.00000000       0.00000000       0.00000000
Si       2.77335115       1.03232518       0.17438842       0.00000000       0.00000000       0.00000000
Si       5.69590418       6.55380685       1.60956592       0.00000000       0.00000000       0.00000000
Si       1.03232518       6.55380685       5.56632158       0.00000000       0.00000000       0.00000000
Si       2.77335115       5.69590418       4.13114408       0.00000000       0.00000000       0.00000000
Si       6.55380685       3.63125382       4.13114408       0.00000000       0.00000000       0.00000000
Si       8.29483282       2.77335115       5.56632158       0.00000000       0.00000000       0.00000000
Si       8.29483282       7.43693015       4.47992092       0.00000000       0.00000000       0.00000000
Si       1.89022785       3.63125382       3.04474342       0.00000000       0.00000000       0.00000000
Si       7.43693015       5.69590418       3.04474342       0.00000000       0.00000000       0.00000000
Si       1.03232518       1.89022785       4.47992092       0.00000000       0.00000000       0.00000000
