64
Lattice="10.937456000000001 0.0 0.0 0.0 10.937456000000001 0.0 0.0 0.0 10.937456000000001" Properties=species:S:1:pos:R:3:forces:R:3 energy=-345.5060549910188 pbc="T T T"
Si       1.36718200       4.10154600       1.36718200       0.00000000       0.00000000       0.00000000
Si       0.00000000       0.00000000       2.73436400       0.00000000       0.00000000       0.00000000
Si       1.36718200       1.36718200       4.10154600       0.00000000       0.00000000       0.00000000
Si       0.00000000       2.73436400       0.00000000       0.00000000       0.00000000       0.00000000
Si       4.10154600       4.10154600       4.10154600       0.00000000       0.00000000       0.00000000
Si       2.73436400       0.00000000       0.00000000       0.00000000       0.00000000       0.00000000
Si       4.10154600       1.36718200       1.36718200       0.00000000       0.00000000       0.00000000
Si       2.73436400       2.73436400       2.73436400       0.00000000       0.00000000       0.00000000
Si       1.36718200       4.10154600       6.83591000       0.00000000       0.00000000       0.00000000
Si       0.00000000       0.00000000       8.20309200       0.00000000       0.00000000       0.00000000
Si       1.36718200       1.36718200       9.57027400       0.00000000       0.00000000       0.00000000
Si       0.00000000       2.73436400       5.46872800       0.00000000       0.00000000       0.00000000
Si       4.10154600       4.10154600       9.57027400       0.00000000       0.00000000       0.00000000
Si       2.73436400       0.00000000       5.46872800       0.00000000       0.00000000       0.00000000
Si       4.10154600       1.36718200       6.83591000       0.00000000       0.00000000       0.00000000
Si       2.73436400       2.73436400       8.20309200       0.00000000       0.00000000       0.00000000
Si       1.36718200       9.57027400       1.36718200       0.00000000       0.00000000       0.00000000
Si       0.00000000       5.46872800       2.73436400       0.00000000       0.00000000       0.00000000
Si       1.36718200       6.83591000       4.10154600       0.00000000       0.00000000       0.00000000
Si       0.00000000       8.20309200       0.00000000       0.00000000       0.00000000       0.00000000
Si       4.10154600       9.57027400       4.10154600       0.00000000       0.00000000       0.00000000
Si       2.73436400       5.46872800       0.00000000       0.00000000       0.00000000       0.00000000
Si       4.10154600       6.83591000       1.36718200       0.00000000       0.00000000       0.00000000
Si       2.73436400       8.20309200       2.73436400       0.00000000       0.00000000       0.00000000
Si       1.36718200       9.57027400       6.83591000       0.00000000       0.00000000       0.00000000
Si       0.00000000       5.46872800       8.20309200       0.00000000       0.00000000       0.00000000
Si       1.36718200       6.83591000       9.57027400       0.00000000       0.00000000       0.00000000
Si       0.00000000       8.20309200       5.46872800       0.00000000       0.00000000       0.00000000
Si       4.10154600       9.57027400       9.57027400       0.00000000       0.00000000       0.00000000
Si       2.73436400       5.46872800       5.46872800       0.00000000       0.00000000       0.00000000
Si       4.10154600       6.83591000       6.83591000       0.00000000       0.00000000       0.00000000
Si       2.73436400       8.20309200       8.20309200       0.00000000       0.00000000       0.00000000
Si       6.83591000       4.10154600       1.36718200       0.00000000       0.00000000       0.00000000
Si       5.46872800       0.00000000       2.73436400       0.00000000       0.00000000       0.00000000
Si       6.83591000       1.36718200       4.10154600       0.00000000       0.00000000       0.00000000
Si       5.46872800       2.73436400       0.00000000       0.00000000       0.00000000       0.00000000
Si       9.57027400       4.10154600       4.10154600       0.00000000       0.00000000       0.00000000
Si       8.20309200       0.00000000       0.00000000       0.00000000       0.00000000       0.00000000
Si       9.57027400       1.36718200       1.36718200       0.00000000       0.00000000       0.00000000
Si       8.20309200       2.73436400       2.73436400       0.00000000       0.00000000       0.00000000
Si       6.83591000       4.10154600       6.83591000       0.00000000       0.00000000       0.00000000
Si       5.46872800       0.00000000       8.20309200       0.00000000       0.00000000       0.00000000
Si       6.83591000       1.36718200       9.57027400       0.00000000       0.00000000       0.00000000
Si       5.46872800       2.73436400       5.46872800       0.00000000       0.00000000       0.00000000
Si       9.57027400       4.10154600       9.57027400       0.00000000       0.00000000       0.00000000
Si       8.20309200       0.00000000       5.46872800       0.00000000       0.00000000       0.00000000
Si       9.57027400       1.36718200       6.83591000       0.00000000       0.00000000       0.00000000
Si       8.20309200       2.73436400       8.20309200       0.00000000       0.00000000       0.00000000
Si       6.83591000       9.57027400       1.36718200       0.00000000       0.00000000       0.00000000
Si       5.46872800       5.46872800       2.73436400       0.00000000       0.00000000       0.00000000
Si       6.83591000       6.83591000       4.10154600       0.00000000       0.00000000       0.00000000
Si       5.46872800       8.20309200       0.00000000       0.00000000       0.00000000       0.00000000
Si       9.57027400       9.57027400       4.10154600       0.00000000       0.00000000       0.00000000
Si       8.20309200       5.46872800       0.00000000       0.00000000       0.00000000       0.00000000
Si       9.57027400       6.83591000       1.36718200       0.00000000       0.00000000       0.00000000
Si       8.20309200       8.20309200       2.73436400       0.00000000       0.00000000       0.00000000
Si       6.83591000       9.57027400       6.83591000       0.00000000       0.00000000       0.00000000
Si       5.46872800       5.46872800       8.20309200       0.00000000       0.00000000       0.00000000
Si       6.83591000       6.83591000       9.57027400       0.00000000       0.00000000       0.00000000
Si       5.46872800       8.20309200       5.46872800       0.00000000       0.00000000       0.00000000
Si       9.57027400       9.57027400       9.57027400       0.00000000       0.00000000       0.00000000
Si       8.20309200       5.46872800       5.46872800       0.00000000       0.00000000       0.00000000
Si       9.57027400       6.83591000       6.83591000       0.00000000       0.00000000       0.00000000
Si       8.20309200       8.20309200       8.20309200       0.00000000       0.00000000       0.00000000
